 +-------------------------------------------------+
 |                                                 |
 |      CCC   AA    SSS  TTTTT  EEEEE  PPPP        |
 |     C     A  A  S       T    E      P   P       |
 |     C     AAAA   SS     T    EEE    PPPP        |
 |     C     A  A     S    T    E      P           |
 |      CCC  A  A  SSS     T    EEEEE  P           |
 |                                                 |
 +-------------------------------------------------+
 |                                                 |
 | Welcome to Academic Release CASTEP version 23.1 |
 | Ab Initio Total Energy Program                  |
 |                                                 |
 | Authors:                                        |
 | M. Segall, M. Probert, C. Pickard, P. Hasnip,   |
 | S. Clark, K. Refson, J. R. Yates, M. Payne      |
 |                                                 |
 | Contributors:                                   |
 | P. Lindan, P. Haynes, J. White, V. Milman,      |
 | N. Govind, M. Gibson, P. Tulip, V. Cocula,      |
 | B. Montanari, D. Quigley, M. Glover,            |
 | L. Bernasconi, A. Perlov, M. Plummer,           |
 | E. McNellis, J. Meyer, J. Gale, D. Jochym       |
 | J. Aarons, B. Walker, R. Gillen, D. Jones       |
 | T. Green, I. J. Bush, C. J. Armstrong,          |
 | E. J. Higgins, E. L. Brown, M. S. McFly,        |
 | J. Wilkins, B-C. Shih, P. J. P. Byrne,          |
 | R. J. Maurer, J. C. Womack, J. Dziedzic,        |
 | A. Bartok-Partay, L. LeBlanc, T. K. Stenczel,   |
 | J. Kermode, S. Sturniolo, B. Shi, B. Durham     |
 | M. Evans, M. J. Smith                           |
 |                                                 |
 | Copyright (c) 2000 - 2022                       |
 |                                                 |
 |     Distributed under license from Cambridge    |
 |     Enterprise for academic use only.           |
 |                                                 |
 | Please cite                                     |
 |                                                 |
 |     "First principles methods using CASTEP"     |
 |                                                 |
 |         Zeitschrift fuer Kristallographie       |
 |           220(5-6) pp. 567-570 (2005)           |
 |                                                 |
 | S. J. Clark, M. D. Segall, C. J. Pickard,       |
 | P. J. Hasnip, M. J. Probert, K. Refson,         |
 | M. C. Payne                                     |
 |                                                 |
 |       in all publications arising from          |
 |              your use of CASTEP                 |
 |                                                 |
 +-------------------------------------------------+
 |                                                 |
 |              http://www.castep.org              |
 |                                                 |
 +-------------------------------------------------+



 Compiled for darwin_x86_64_gfortran10 on Wed, 01 Feb 2023 22:43:52 +0000
 from code version 74a6ee138+  default  Tue Jan 31 17:20:01 2023 +0000
 Compiler: GNU Fortran 12.2.0; Optimisation: fast
 Comms   : Open MPI v4.1.4
 MATHLIBS: openblas (LAPACK version 3.9.0)
 FFT Lib : fftw3 version fftw-3.3.8
 Fundamental constants values: CODATA 2018

 Run started: Wed, 22 Mar 2023 11:39:05 +0000

 Atomic calculation performed for Si: 1s2 2s2 2p6 3s2 3p2

 Converged in 55 iterations to an ae energy of -7859.183 eV

   ============================================================                
   | Pseudopotential Report - Date of generation 22-03-2023   |                
   ------------------------------------------------------------                
   | Element: Si Ionic charge:  4.00 Level of theory: LDA     |                
   | Atomic Solver: Koelling-Harmon                           |                
   |                                                          |                
   |               Reference Electronic Structure             |                
   |         Orbital         Occupation         Energy        |                
   |            3s              2.000           -0.400        |                
   |            3p              2.000           -0.153        |                
   |                                                          |                
   |                 Pseudopotential Definition               |                
   |        Beta     l      e      Rc     scheme   norm       |                
   |          1      0   -0.400   1.797     qc      0         |                
   |          2      0    0.250   1.797     qc      0         |                
   |          3      1   -0.153   1.797     qc      0         |                
   |          4      1    0.250   1.797     qc      0         |                
   |          5      2    0.000   1.797     qc      0         |                
   |          6      2    0.250   1.797     qc      0         |                
   |         loc     3    0.000   1.797     pn      0         |                
   |                                                          |                
   | Augmentation charge Rinner = 1.255                       |                
   | Partial core correction Rc = 1.255                       |                
   ------------------------------------------------------------                
   | "3|1.8|5|6|7|30:31:32"                                   |                
   ------------------------------------------------------------                
   |      Author: Chris J. Pickard, Cambridge University      |                
   ============================================================                

 Pseudo atomic calculation performed for Si 3s2 3p2

 Converged in 16 iterations to a total energy of -163.0148 eV
 Calculation not parallelised.

 ************************************ Title ************************************
 

 ***************************** General Parameters ******************************
  
 output verbosity                               : normal  (1)
 write checkpoint data to                       : Si.check
 type of calculation                            : Electronic Spectroscopy
 stress calculation                             : off
 density difference calculation                 : off
 electron localisation func (ELF) calculation   : off
 Hirshfeld analysis                             : off
 polarisation (Berry phase) analysis            : off
 molecular orbital projected DOS                : off
 deltaSCF calculation                           : off
 unlimited duration calculation
 timing information                             : on
 memory usage estimate                          : on
 write extra output files                       : on
 write final potential to formatted file        : off
 write final density to formatted file          : off
 write BibTeX reference list                    : on
 write OTFG pseudopotential files               : on
 write electrostatic potential file             : on
 write bands file                               : on
 checkpoint writing                             : both castep_bin and check files
 random number generator seed                   :  113905959

 *********************** Exchange-Correlation Parameters ***********************
  
 using functional                               : Local Density Approximation
 DFT+D: Semi-empirical dispersion correction    : off

 ************************* Pseudopotential Parameters **************************
  
 pseudopotential representation                 : reciprocal space
 <beta|phi> representation                      : reciprocal space
 spin-orbit coupling                            : off

 **************************** Basis Set Parameters *****************************
  
 basis set accuracy                             : FINE
 finite basis set correction                    : none

 **************************** Electronic Parameters ****************************
  
 number of  electrons                           :  8.000    
 net charge of system                           :  0.000    
 treating system as non-spin-polarized
 number of bands                                :          8

 ********************* Electronic Minimization Parameters **********************
  
 Method: Treating system as metallic with density mixing treatment of electrons,
         and number of  SD  steps               :          1
         and number of  CG  steps               :          4
  
 total energy / atom convergence tol.           : 0.1000E-04   eV
 eigen-energy convergence tolerance             : 0.1000E-05   eV
 max force / atom convergence tol.              : ignored
 periodic dipole correction                     : NONE

 ************************** Density Mixing Parameters **************************
  
 density-mixing scheme                          : Broyden
 max. length of mixing history                  :         20

 *********************** Population Analysis Parameters ************************
  
 Population analysis with cutoff                :  3.000       A
 Population analysis output                     : summary and pdos components

 ********************* Electronic Spectroscopy Parameters **********************
  
 electronic spectroscopy with theory level      : DFT       
 spectroscopy calculation                       : band structure
 max. number of iterations                      :         60
 max. steps per iteration                       :          5
 number of bands / k-point                      :         23
 band convergence tolerance                     : 0.1000E-05   eV
 write orbitals file                            : off

 *******************************************************************************
  

                           -------------------------------
                                      Unit Cell
                           -------------------------------
        Real Lattice(A)                      Reciprocal Lattice(1/A)
     2.7155000     2.7155000     0.0000000        1.156911307   1.156911307  -1.156911307
     2.7155000     0.0000000     2.7155000        1.156911307  -1.156911307   1.156911307
     0.0000000     2.7155000     2.7155000       -1.156911307   1.156911307   1.156911307

                       Lattice parameters(A)       Cell Angles
                    a =      3.840297          alpha =   60.000000
                    b =      3.840297          beta  =   60.000000
                    c =      3.840297          gamma =   60.000000

                       Current cell volume =            40.047869       A**3
                                   density =             1.402596   AMU/A**3
                                           =             2.329066     g/cm^3

                           -------------------------------
                                     Cell Contents
                           -------------------------------
                         Total number of ions in cell =    2
                      Total number of species in cell =    1
                        Max number of any one species =    2

            xxxxxxxxxxxxxxxxxxxxxxxxxxxxxxxxxxxxxxxxxxxxxxxxxxxxxxxxxxxx
            x  Element    Atom        Fractional coordinates of atoms  x
            x            Number           u          v          w      x
            x----------------------------------------------------------x
            x  Si           1         0.000000   0.000000   0.000000   x 
            x  Si           2         0.250000   0.250000   0.250000   x 
            xxxxxxxxxxxxxxxxxxxxxxxxxxxxxxxxxxxxxxxxxxxxxxxxxxxxxxxxxxxx


                         No user defined ionic velocities

                           -------------------------------
                                   Details of Species
                           -------------------------------

                               Mass of species in AMU
                                    Si   28.0855000

                          Electric Quadrupole Moment (Barn)
                                    Si    1.0000000 No Isotope Defined

                          Files used for pseudopotentials:
                                    Si 3|1.8|5|6|7|30:31:32

                           -------------------------------
                              k-Points For BZ Sampling
                           -------------------------------
                       MP grid size for SCF calculation is  3  3  3
                            with an offset of   0.000  0.000  0.000
                       Number of kpoints used =             4

                           -------------------------------
                               Symmetry and Constraints
                           -------------------------------

                      Maximum deviation from symmetry = 0.300933E-32     ANG

                      Number of symmetry operations   =          48
                      Number of ionic constraints     =           3
                      Point group of crystal =    32: Oh, m-3m, 4/m -3 2/m
                      Space group of crystal =   227: Fd-3m, F 4d 2 3 -1d

             Set iprint > 1 for details on symmetry rotations/translations

                         Centre of mass is constrained
             Set iprint > 1 for details of linear ionic constraints

                         Number of cell constraints= 5
                         Cell constraints are:  1 1 1 0 0 0

                         External pressure/stress (GPa)
                          0.00000   0.00000   0.00000
                                    0.00000   0.00000
                                              0.00000
 
+---------------- MEMORY AND SCRATCH DISK ESTIMATES PER PROCESS --------------+
|                                                     Memory          Disk    |
| Baseline code, static data and system overhead        0.0 MB         0.0 MB |
| BLAS internal memory storage                          0.0 MB         0.0 MB |
| Model and support data                               86.9 MB         0.0 MB |
| Electronic energy minimisation requirements           1.1 MB         0.0 MB |
| Force calculation requirements                        0.6 MB         0.0 MB |
|                                               ----------------------------- |
| Approx. total storage required per process           88.0 MB         0.0 MB |
|                                                                             |
| Requirements will fluctuate during execution and may exceed these estimates |
+-----------------------------------------------------------------------------+
Calculating approximate eigenstates for fixed initial Hamiltonian
Cut-off for approx. calculation is   89.988 eV
Resetting cut-off to  190.480 eV
Calculating total energy with cut-off of  190.480 eV.
------------------------------------------------------------------------ <-- SCF
SCF loop      Energy           Fermi           Energy gain       Timer   <-- SCF
                               energy          per atom          (sec)   <-- SCF
------------------------------------------------------------------------ <-- SCF
Initial  -3.33568277E+002  0.00000000E+000                         3.49  <-- SCF
      1  -3.37586750E+002  4.36600688E+000   2.00923645E+000       3.53  <-- SCF
      2  -3.37598020E+002  4.36400596E+000   5.63539587E-003       3.60  <-- SCF
      3  -3.37369521E+002  4.62363905E+000  -1.14249893E-001       3.64  <-- SCF
      4  -3.37354656E+002  4.73580966E+000  -7.43257498E-003       3.69  <-- SCF
      5  -3.37355139E+002  4.74138240E+000   2.41590586E-004       3.73  <-- SCF
      6  -3.37355205E+002  4.74608445E+000   3.32982484E-005       3.76  <-- SCF
      7  -3.37355207E+002  4.74610151E+000   7.31636244E-007       3.79  <-- SCF
      8  -3.37355207E+002  4.74611976E+000  -8.22265370E-009       3.82  <-- SCF
------------------------------------------------------------------------ <-- SCF
 
Final energy, E             =  -337.3508649251     eV
Final free energy (E-TS)    =  -337.3552067677     eV
(energies not corrected for finite basis set)
 
NB est. 0K energy (E-0.5TS)      =  -337.3530358464     eV
 

Writing analysis data to Si.castep_bin

Writing model to Si.check
 
+---------------- MEMORY AND SCRATCH DISK ESTIMATES PER PROCESS --------------+
|                                                     Memory          Disk    |
|                                               ----------------------------- |
| Approx. total storage required per process          100.2 MB         0.0 MB |
|                                                                             |
| Requirements will fluctuate during execution and may exceed these estimates |
+-----------------------------------------------------------------------------+
 
  =====================================================================
  +                                                                   +
  +                 Calculation of Spectral Properties                +
  +                                                                   +
  =====================================================================
  Starting k-point:        1 of       52 on this process      |<-- SPEC
  Starting k-point:        2 of       52 on this process      |<-- SPEC
  Starting k-point:        3 of       52 on this process      |<-- SPEC
  Starting k-point:        4 of       52 on this process      |<-- SPEC
  Starting k-point:        5 of       52 on this process      |<-- SPEC
  Starting k-point:        6 of       52 on this process      |<-- SPEC
  Starting k-point:        7 of       52 on this process      |<-- SPEC
  Starting k-point:        8 of       52 on this process      |<-- SPEC
  Starting k-point:        9 of       52 on this process      |<-- SPEC
  Starting k-point:       10 of       52 on this process      |<-- SPEC
  Starting k-point:       11 of       52 on this process      |<-- SPEC
  Starting k-point:       12 of       52 on this process      |<-- SPEC
  Starting k-point:       13 of       52 on this process      |<-- SPEC
  Starting k-point:       14 of       52 on this process      |<-- SPEC
  Starting k-point:       15 of       52 on this process      |<-- SPEC
  Starting k-point:       16 of       52 on this process      |<-- SPEC
  Starting k-point:       17 of       52 on this process      |<-- SPEC
  Starting k-point:       18 of       52 on this process      |<-- SPEC
  Starting k-point:       19 of       52 on this process      |<-- SPEC
  Starting k-point:       20 of       52 on this process      |<-- SPEC
  Starting k-point:       21 of       52 on this process      |<-- SPEC
  Starting k-point:       22 of       52 on this process      |<-- SPEC
  Starting k-point:       23 of       52 on this process      |<-- SPEC
  Starting k-point:       24 of       52 on this process      |<-- SPEC
  Starting k-point:       25 of       52 on this process      |<-- SPEC
  Starting k-point:       26 of       52 on this process      |<-- SPEC
  Starting k-point:       27 of       52 on this process      |<-- SPEC
  Starting k-point:       28 of       52 on this process      |<-- SPEC
  Starting k-point:       29 of       52 on this process      |<-- SPEC
  Starting k-point:       30 of       52 on this process      |<-- SPEC
  Starting k-point:       31 of       52 on this process      |<-- SPEC
  Starting k-point:       32 of       52 on this process      |<-- SPEC
  Starting k-point:       33 of       52 on this process      |<-- SPEC
  Starting k-point:       34 of       52 on this process      |<-- SPEC
  Starting k-point:       35 of       52 on this process      |<-- SPEC
  Starting k-point:       36 of       52 on this process      |<-- SPEC
  Starting k-point:       37 of       52 on this process      |<-- SPEC
  Starting k-point:       38 of       52 on this process      |<-- SPEC
  Starting k-point:       39 of       52 on this process      |<-- SPEC
  Starting k-point:       40 of       52 on this process      |<-- SPEC
  Starting k-point:       41 of       52 on this process      |<-- SPEC
  Starting k-point:       42 of       52 on this process      |<-- SPEC
  Starting k-point:       43 of       52 on this process      |<-- SPEC
  Starting k-point:       44 of       52 on this process      |<-- SPEC
  Starting k-point:       45 of       52 on this process      |<-- SPEC
  Starting k-point:       46 of       52 on this process      |<-- SPEC
  Starting k-point:       47 of       52 on this process      |<-- SPEC
  Starting k-point:       48 of       52 on this process      |<-- SPEC
  Starting k-point:       49 of       52 on this process      |<-- SPEC
  Starting k-point:       50 of       52 on this process      |<-- SPEC
  Starting k-point:       51 of       52 on this process      |<-- SPEC
  Starting k-point:       52 of       52 on this process      |<-- SPEC
  Total time to compute matrix elements              7.26 sec |<-- SPEC
  

 ******************** Symmetrised Forces ********************
 *                                                          *
 *               Cartesian components (eV/A)                *
 * -------------------------------------------------------- *
 *                         x            y            z      *
 *                                                          *
 * Si              1      0.00000      0.00000      0.00000 *
 * Si              2      0.00000      0.00000      0.00000 *
 *                                                          *
 ************************************************************

 Pseudo atomic calculation performed for Si 3s2 3p2

 Converged in 16 iterations to a total energy of -163.0148 eV
Charge spilling parameter for spin component 1 = 1.11%

            Orbital Populations       
     Ion    Atom   Orbital             Charge
  -------------------------------------------
     Si     1      S                    1.320
     Si     1      Px                   0.863
     Si     1      Py                   0.946
     Si     1      Pz                   0.871
     Si     2      S                    1.320
     Si     2      Px                   0.863
     Si     2      Py                   0.946
     Si     2      Pz                   0.871
  -------------------------------------------
                           Total:       8.000
  -------------------------------------------

     Atomic Populations (Mulliken)
     -----------------------------
Species          Ion     s       p       d       f      Total   Charge (e)
==========================================================================
  Si              1     1.320   2.680   0.000   0.000   4.000     0.000
  Si              2     1.320   2.680   0.000   0.000   4.000     0.000
==========================================================================

                 Bond                   Population      Length (A)
======================================================================
              Si 1 -- Si 2                   3.02        2.35169
======================================================================


Writing analysis data to Si.castep_bin

Writing model to Si.check
 
 A BibTeX formatted list of references used in this run has been written to 
 Si.bib
 
Initialisation time =      3.21 s
Calculation time    =      8.15 s
Finalisation time   =      0.02 s
Total time          =     11.38 s
